    1C
    1UUSER                                                              
    1UDATE              19.july.2018                                    
    1UTIME              15:40:37                                        
    1UHOST                                                              
    1UPGM               CalculiX                                        
    1UVERSION           Version DEVELOPMENT                             
    1UCOMPILETIME       So 13. Mai 12:06:53 CEST 2018                    
    1UDIR                                                               
    1UDBN                                                               
    1UMAT    1STEEL                                                     
    2C                             3                                     1
 -1         1 0.00000E+00 0.00000E+00 0.00000E+00
 -1         2 1.00000E+00 0.00000E+00 0.00000E+00
 -1         3 5.00000E-01 0.00000E+00 0.00000E+00
 -3
    3C                             1                                     1
 -1         3   12    0    1
 -2         1         2         3
 -3
    1PSTEP                         1           1           1          
  100CL  101 1.000000000           3                     0    1           1
 -4  DISP        4    1
 -5  D1          1    2    1    0
 -5  D2          1    2    2    0
 -5  D3          1    2    3    0
 -5  ALL         1    2    0    0    1ALL
 -1         1 0.00000E+00-1.05879E-22-1.05879E-22
 -1         2 1.94898E-05-1.05879E-22 0.00000E+00
 -1         3 9.74490E-06 3.81248E-21 6.70016E-23
 -3
 9999
