    1C
    1UUSER                                                              
    1UDATE              10.july.2018                                    
    1UTIME              18:57:17                                        
    1UHOST                                                              
    1UPGM               CalculiX                                        
    1UVERSION           Version 2.11                             
    1UCOMPILETIME       So 31. Jul 13:26:31 CEST 2016                    
    1UDIR                                                               
    1UDBN                                                               
    1UMAT    1STEEL                                                     
    1UMAT    2SPRING                                                    
    2C                             4                                     1
 -1         1 0.00000E+00 0.00000E+00 0.00000E+00
 -1         2-3.53553E+00 3.53553E+00 0.00000E+00
 -1         3-1.00000E+01 0.00000E+00 0.00000E+00
 -1         4 0.00000E+00-1.00000E+00 0.00000E+00
 -3
    3C                             3                                     1
 -1         5   11    0    1
 -2         1         2
 -1         6   11    0    1
 -2         1         3
 -1         7   11    0    2
 -2         1         4
 -3
    1PSTEP                         1           1           1          
  100CL  101 1.000000000           4                     0    1           1
 -4  DISP        4    1
 -5  D1          1    2    1    0
 -5  D2          1    2    2    0
 -5  D3          1    2    3    0
 -5  ALL         1    2    0    0    1ALL
 -1         1-1.72414E-03-3.44828E-03-1.62247E-19
 -1         2-2.11758E-22 2.11758E-22-7.94093E-23
 -1         3 0.00000E+00-5.29396E-23 0.00000E+00
 -1         4 0.00000E+00 0.00000E+00 0.00000E+00
 -3
 9999
