    1C
    1UUSER                                                              
    1UDATE              19.july.2018                                    
    1UTIME              17:04:04                                        
    1UHOST                                                              
    1UPGM               CalculiX                                        
    1UVERSION           Version DEVELOPMENT                             
    1UCOMPILETIME       So 13. Mai 12:06:53 CEST 2018                    
    1UDIR                                                               
    1UDBN                                                               
    1UMAT    1STEEL                                                     
    2C                           459                                     1
 -1         1-1.00000E+00-1.00000E+00 0.00000E+00
 -1         2-1.00000E+00 1.00000E+00 0.00000E+00
 -1         3 1.00000E+00-1.00000E+00 0.00000E+00
 -1         4 1.00000E+00 1.00000E+00 0.00000E+00
 -1         5-1.00000E+00 1.00000E+00 5.00000E+01
 -1         6-1.00000E+00-1.00000E+00 5.00000E+01
 -1         7 1.00000E+00-1.00000E+00 5.00000E+01
 -1         8 1.00000E+00 1.00000E+00 5.00000E+01
 -1         9-1.00000E+00 2.75280E-12 0.00000E+00
 -1        10-2.75280E-12 1.00000E+00 0.00000E+00
 -1        11-2.75280E-12-1.00000E+00 0.00000E+00
 -1        12 1.00000E+00-2.75280E-12 0.00000E+00
 -1        13-1.00000E+00 2.75280E-12 5.00000E+01
 -1        14-2.75280E-12-1.00000E+00 5.00000E+01
 -1        15 1.00000E+00-2.75280E-12 5.00000E+01
 -1        16-2.75280E-12 1.00000E+00 5.00000E+01
 -1        17-1.00000E+00 1.00000E+00 1.00000E+00
 -1        18-1.00000E+00 1.00000E+00 2.00000E+00
 -1        19-1.00000E+00 1.00000E+00 3.00000E+00
 -1        20-1.00000E+00 1.00000E+00 4.00000E+00
 -1        21-1.00000E+00 1.00000E+00 5.00000E+00
 -1        22-1.00000E+00 1.00000E+00 6.00000E+00
 -1        23-1.00000E+00 1.00000E+00 7.00000E+00
 -1        24-1.00000E+00 1.00000E+00 8.00000E+00
 -1        25-1.00000E+00 1.00000E+00 9.00000E+00
 -1        26-1.00000E+00 1.00000E+00 1.00000E+01
 -1        27-1.00000E+00 1.00000E+00 1.10000E+01
 -1        28-1.00000E+00 1.00000E+00 1.20000E+01
 -1        29-1.00000E+00 1.00000E+00 1.30000E+01
 -1        30-1.00000E+00 1.00000E+00 1.40000E+01
 -1        31-1.00000E+00 1.00000E+00 1.50000E+01
 -1        32-1.00000E+00 1.00000E+00 1.60000E+01
 -1        33-1.00000E+00 1.00000E+00 1.70000E+01
 -1        34-1.00000E+00 1.00000E+00 1.80000E+01
 -1        35-1.00000E+00 1.00000E+00 1.90000E+01
 -1        36-1.00000E+00 1.00000E+00 2.00000E+01
 -1        37-1.00000E+00 1.00000E+00 2.10000E+01
 -1        38-1.00000E+00 1.00000E+00 2.20000E+01
 -1        39-1.00000E+00 1.00000E+00 2.30000E+01
 -1        40-1.00000E+00 1.00000E+00 2.40000E+01
 -1        41-1.00000E+00 1.00000E+00 2.50000E+01
 -1        42-1.00000E+00 1.00000E+00 2.60000E+01
 -1        43-1.00000E+00 1.00000E+00 2.70000E+01
 -1        44-1.00000E+00 1.00000E+00 2.80000E+01
 -1        45-1.00000E+00 1.00000E+00 2.90000E+01
 -1        46-1.00000E+00 1.00000E+00 3.00000E+01
 -1        47-1.00000E+00 1.00000E+00 3.10000E+01
 -1        48-1.00000E+00 1.00000E+00 3.20000E+01
 -1        49-1.00000E+00 1.00000E+00 3.30000E+01
 -1        50-1.00000E+00 1.00000E+00 3.40000E+01
 -1        51-1.00000E+00 1.00000E+00 3.50000E+01
 -1        52-1.00000E+00 1.00000E+00 3.60000E+01
 -1        53-1.00000E+00 1.00000E+00 3.70000E+01
 -1        54-1.00000E+00 1.00000E+00 3.80000E+01
 -1        55-1.00000E+00 1.00000E+00 3.90000E+01
 -1        56-1.00000E+00 1.00000E+00 4.00000E+01
 -1        57-1.00000E+00 1.00000E+00 4.10000E+01
 -1        58-1.00000E+00 1.00000E+00 4.20000E+01
 -1        59-1.00000E+00 1.00000E+00 4.30000E+01
 -1        60-1.00000E+00 1.00000E+00 4.40000E+01
 -1        61-1.00000E+00 1.00000E+00 4.50000E+01
 -1        62-1.00000E+00 1.00000E+00 4.60000E+01
 -1        63-1.00000E+00 1.00000E+00 4.70000E+01
 -1        64-1.00000E+00 1.00000E+00 4.80000E+01
 -1        65-1.00000E+00 1.00000E+00 4.90000E+01
 -1        66-1.00000E+00-1.00000E+00 1.00000E+00
 -1        67-1.00000E+00-1.00000E+00 2.00000E+00
 -1        68-1.00000E+00-1.00000E+00 3.00000E+00
 -1        69-1.00000E+00-1.00000E+00 4.00000E+00
 -1        70-1.00000E+00-1.00000E+00 5.00000E+00
 -1        71-1.00000E+00-1.00000E+00 6.00000E+00
 -1        72-1.00000E+00-1.00000E+00 7.00000E+00
 -1        73-1.00000E+00-1.00000E+00 8.00000E+00
 -1        74-1.00000E+00-1.00000E+00 9.00000E+00
 -1        75-1.00000E+00-1.00000E+00 1.00000E+01
 -1        76-1.00000E+00-1.00000E+00 1.10000E+01
 -1        77-1.00000E+00-1.00000E+00 1.20000E+01
 -1        78-1.00000E+00-1.00000E+00 1.30000E+01
 -1        79-1.00000E+00-1.00000E+00 1.40000E+01
 -1        80-1.00000E+00-1.00000E+00 1.50000E+01
 -1        81-1.00000E+00-1.00000E+00 1.60000E+01
 -1        82-1.00000E+00-1.00000E+00 1.70000E+01
 -1        83-1.00000E+00-1.00000E+00 1.80000E+01
 -1        84-1.00000E+00-1.00000E+00 1.90000E+01
 -1        85-1.00000E+00-1.00000E+00 2.00000E+01
 -1        86-1.00000E+00-1.00000E+00 2.10000E+01
 -1        87-1.00000E+00-1.00000E+00 2.20000E+01
 -1        88-1.00000E+00-1.00000E+00 2.30000E+01
 -1        89-1.00000E+00-1.00000E+00 2.40000E+01
 -1        90-1.00000E+00-1.00000E+00 2.50000E+01
 -1        91-1.00000E+00-1.00000E+00 2.60000E+01
 -1        92-1.00000E+00-1.00000E+00 2.70000E+01
 -1        93-1.00000E+00-1.00000E+00 2.80000E+01
 -1        94-1.00000E+00-1.00000E+00 2.90000E+01
 -1        95-1.00000E+00-1.00000E+00 3.00000E+01
 -1        96-1.00000E+00-1.00000E+00 3.10000E+01
 -1        97-1.00000E+00-1.00000E+00 3.20000E+01
 -1        98-1.00000E+00-1.00000E+00 3.30000E+01
 -1        99-1.00000E+00-1.00000E+00 3.40000E+01
 -1       100-1.00000E+00-1.00000E+00 3.50000E+01
 -1       101-1.00000E+00-1.00000E+00 3.60000E+01
 -1       102-1.00000E+00-1.00000E+00 3.70000E+01
 -1       103-1.00000E+00-1.00000E+00 3.80000E+01
 -1       104-1.00000E+00-1.00000E+00 3.90000E+01
 -1       105-1.00000E+00-1.00000E+00 4.00000E+01
 -1       106-1.00000E+00-1.00000E+00 4.10000E+01
 -1       107-1.00000E+00-1.00000E+00 4.20000E+01
 -1       108-1.00000E+00-1.00000E+00 4.30000E+01
 -1       109-1.00000E+00-1.00000E+00 4.40000E+01
 -1       110-1.00000E+00-1.00000E+00 4.50000E+01
 -1       111-1.00000E+00-1.00000E+00 4.60000E+01
 -1       112-1.00000E+00-1.00000E+00 4.70000E+01
 -1       113-1.00000E+00-1.00000E+00 4.80000E+01
 -1       114-1.00000E+00-1.00000E+00 4.90000E+01
 -1       115 1.00000E+00-1.00000E+00 1.00000E+00
 -1       116 1.00000E+00-1.00000E+00 2.00000E+00
 -1       117 1.00000E+00-1.00000E+00 3.00000E+00
 -1       118 1.00000E+00-1.00000E+00 4.00000E+00
 -1       119 1.00000E+00-1.00000E+00 5.00000E+00
 -1       120 1.00000E+00-1.00000E+00 6.00000E+00
 -1       121 1.00000E+00-1.00000E+00 7.00000E+00
 -1       122 1.00000E+00-1.00000E+00 8.00000E+00
 -1       123 1.00000E+00-1.00000E+00 9.00000E+00
 -1       124 1.00000E+00-1.00000E+00 1.00000E+01
 -1       125 1.00000E+00-1.00000E+00 1.10000E+01
 -1       126 1.00000E+00-1.00000E+00 1.20000E+01
 -1       127 1.00000E+00-1.00000E+00 1.30000E+01
 -1       128 1.00000E+00-1.00000E+00 1.40000E+01
 -1       129 1.00000E+00-1.00000E+00 1.50000E+01
 -1       130 1.00000E+00-1.00000E+00 1.60000E+01
 -1       131 1.00000E+00-1.00000E+00 1.70000E+01
 -1       132 1.00000E+00-1.00000E+00 1.80000E+01
 -1       133 1.00000E+00-1.00000E+00 1.90000E+01
 -1       134 1.00000E+00-1.00000E+00 2.00000E+01
 -1       135 1.00000E+00-1.00000E+00 2.10000E+01
 -1       136 1.00000E+00-1.00000E+00 2.20000E+01
 -1       137 1.00000E+00-1.00000E+00 2.30000E+01
 -1       138 1.00000E+00-1.00000E+00 2.40000E+01
 -1       139 1.00000E+00-1.00000E+00 2.50000E+01
 -1       140 1.00000E+00-1.00000E+00 2.60000E+01
 -1       141 1.00000E+00-1.00000E+00 2.70000E+01
 -1       142 1.00000E+00-1.00000E+00 2.80000E+01
 -1       143 1.00000E+00-1.00000E+00 2.90000E+01
 -1       144 1.00000E+00-1.00000E+00 3.00000E+01
 -1       145 1.00000E+00-1.00000E+00 3.10000E+01
 -1       146 1.00000E+00-1.00000E+00 3.20000E+01
 -1       147 1.00000E+00-1.00000E+00 3.30000E+01
 -1       148 1.00000E+00-1.00000E+00 3.40000E+01
 -1       149 1.00000E+00-1.00000E+00 3.50000E+01
 -1       150 1.00000E+00-1.00000E+00 3.60000E+01
 -1       151 1.00000E+00-1.00000E+00 3.70000E+01
 -1       152 1.00000E+00-1.00000E+00 3.80000E+01
 -1       153 1.00000E+00-1.00000E+00 3.90000E+01
 -1       154 1.00000E+00-1.00000E+00 4.00000E+01
 -1       155 1.00000E+00-1.00000E+00 4.10000E+01
 -1       156 1.00000E+00-1.00000E+00 4.20000E+01
 -1       157 1.00000E+00-1.00000E+00 4.30000E+01
 -1       158 1.00000E+00-1.00000E+00 4.40000E+01
 -1       159 1.00000E+00-1.00000E+00 4.50000E+01
 -1       160 1.00000E+00-1.00000E+00 4.60000E+01
 -1       161 1.00000E+00-1.00000E+00 4.70000E+01
 -1       162 1.00000E+00-1.00000E+00 4.80000E+01
 -1       163 1.00000E+00-1.00000E+00 4.90000E+01
 -1       164 1.00000E+00 1.00000E+00 1.00000E+00
 -1       165 1.00000E+00 1.00000E+00 2.00000E+00
 -1       166 1.00000E+00 1.00000E+00 3.00000E+00
 -1       167 1.00000E+00 1.00000E+00 4.00000E+00
 -1       168 1.00000E+00 1.00000E+00 5.00000E+00
 -1       169 1.00000E+00 1.00000E+00 6.00000E+00
 -1       170 1.00000E+00 1.00000E+00 7.00000E+00
 -1       171 1.00000E+00 1.00000E+00 8.00000E+00
 -1       172 1.00000E+00 1.00000E+00 9.00000E+00
 -1       173 1.00000E+00 1.00000E+00 1.00000E+01
 -1       174 1.00000E+00 1.00000E+00 1.10000E+01
 -1       175 1.00000E+00 1.00000E+00 1.20000E+01
 -1       176 1.00000E+00 1.00000E+00 1.30000E+01
 -1       177 1.00000E+00 1.00000E+00 1.40000E+01
 -1       178 1.00000E+00 1.00000E+00 1.50000E+01
 -1       179 1.00000E+00 1.00000E+00 1.60000E+01
 -1       180 1.00000E+00 1.00000E+00 1.70000E+01
 -1       181 1.00000E+00 1.00000E+00 1.80000E+01
 -1       182 1.00000E+00 1.00000E+00 1.90000E+01
 -1       183 1.00000E+00 1.00000E+00 2.00000E+01
 -1       184 1.00000E+00 1.00000E+00 2.10000E+01
 -1       185 1.00000E+00 1.00000E+00 2.20000E+01
 -1       186 1.00000E+00 1.00000E+00 2.30000E+01
 -1       187 1.00000E+00 1.00000E+00 2.40000E+01
 -1       188 1.00000E+00 1.00000E+00 2.50000E+01
 -1       189 1.00000E+00 1.00000E+00 2.60000E+01
 -1       190 1.00000E+00 1.00000E+00 2.70000E+01
 -1       191 1.00000E+00 1.00000E+00 2.80000E+01
 -1       192 1.00000E+00 1.00000E+00 2.90000E+01
 -1       193 1.00000E+00 1.00000E+00 3.00000E+01
 -1       194 1.00000E+00 1.00000E+00 3.10000E+01
 -1       195 1.00000E+00 1.00000E+00 3.20000E+01
 -1       196 1.00000E+00 1.00000E+00 3.30000E+01
 -1       197 1.00000E+00 1.00000E+00 3.40000E+01
 -1       198 1.00000E+00 1.00000E+00 3.50000E+01
 -1       199 1.00000E+00 1.00000E+00 3.60000E+01
 -1       200 1.00000E+00 1.00000E+00 3.70000E+01
 -1       201 1.00000E+00 1.00000E+00 3.80000E+01
 -1       202 1.00000E+00 1.00000E+00 3.90000E+01
 -1       203 1.00000E+00 1.00000E+00 4.00000E+01
 -1       204 1.00000E+00 1.00000E+00 4.10000E+01
 -1       205 1.00000E+00 1.00000E+00 4.20000E+01
 -1       206 1.00000E+00 1.00000E+00 4.30000E+01
 -1       207 1.00000E+00 1.00000E+00 4.40000E+01
 -1       208 1.00000E+00 1.00000E+00 4.50000E+01
 -1       209 1.00000E+00 1.00000E+00 4.60000E+01
 -1       210 1.00000E+00 1.00000E+00 4.70000E+01
 -1       211 1.00000E+00 1.00000E+00 4.80000E+01
 -1       212 1.00000E+00 1.00000E+00 4.90000E+01
 -1       213-9.25010E-13 0.00000E+00 0.00000E+00
 -1       214-1.00000E+00 6.22724E-13 1.00000E+00
 -1       215-1.00000E+00 1.33227E-15 2.00000E+00
 -1       216-1.00000E+00 6.66134E-16 3.00000E+00
 -1       217-1.00000E+00 6.66134E-16 4.00000E+00
 -1       218-1.00000E+00 0.00000E+00 5.00000E+00
 -1       219-1.00000E+00 0.00000E+00 6.00000E+00
 -1       220-1.00000E+00 0.00000E+00 7.00000E+00
 -1       221-1.00000E+00 0.00000E+00 8.00000E+00
 -1       222-1.00000E+00 0.00000E+00 9.00000E+00
 -1       223-1.00000E+00 0.00000E+00 1.00000E+01
 -1       224-1.00000E+00 0.00000E+00 1.10000E+01
 -1       225-1.00000E+00 0.00000E+00 1.20000E+01
 -1       226-1.00000E+00 0.00000E+00 1.30000E+01
 -1       227-1.00000E+00 0.00000E+00 1.40000E+01
 -1       228-1.00000E+00 0.00000E+00 1.50000E+01
 -1       229-1.00000E+00 0.00000E+00 1.60000E+01
 -1       230-1.00000E+00 0.00000E+00 1.70000E+01
 -1       231-1.00000E+00 0.00000E+00 1.80000E+01
 -1       232-1.00000E+00 0.00000E+00 1.90000E+01
 -1       233-1.00000E+00 0.00000E+00 2.00000E+01
 -1       234-1.00000E+00 0.00000E+00 2.10000E+01
 -1       235-1.00000E+00 0.00000E+00 2.20000E+01
 -1       236-1.00000E+00 0.00000E+00 2.30000E+01
 -1       237-1.00000E+00 0.00000E+00 2.40000E+01
 -1       238-1.00000E+00 0.00000E+00 2.50000E+01
 -1       239-1.00000E+00 0.00000E+00 2.60000E+01
 -1       240-1.00000E+00 0.00000E+00 2.70000E+01
 -1       241-1.00000E+00 0.00000E+00 2.80000E+01
 -1       242-1.00000E+00 0.00000E+00 2.90000E+01
 -1       243-1.00000E+00 0.00000E+00 3.00000E+01
 -1       244-1.00000E+00 0.00000E+00 3.10000E+01
 -1       245-1.00000E+00 0.00000E+00 3.20000E+01
 -1       246-1.00000E+00 0.00000E+00 3.30000E+01
 -1       247-1.00000E+00 0.00000E+00 3.40000E+01
 -1       248-1.00000E+00 0.00000E+00 3.50000E+01
 -1       249-1.00000E+00 0.00000E+00 3.60000E+01
 -1       250-1.00000E+00 0.00000E+00 3.70000E+01
 -1       251-1.00000E+00 0.00000E+00 3.80000E+01
 -1       252-1.00000E+00 0.00000E+00 3.90000E+01
 -1       253-1.00000E+00 0.00000E+00 4.00000E+01
 -1       254-1.00000E+00 0.00000E+00 4.10000E+01
 -1       255-1.00000E+00 0.00000E+00 4.20000E+01
 -1       256-1.00000E+00 0.00000E+00 4.30000E+01
 -1       257-1.00000E+00 0.00000E+00 4.40000E+01
 -1       258-1.00000E+00 0.00000E+00 4.50000E+01
 -1       259-1.00000E+00 0.00000E+00 4.60000E+01
 -1       260-1.00000E+00 0.00000E+00 4.70000E+01
 -1       261-1.00000E+00 4.44089E-16 4.80000E+01
 -1       262-1.00000E+00 5.03930E-13 4.90000E+01
 -1       263-6.24389E-13-1.00000E+00 1.00000E+00
 -1       264-1.33227E-15-1.00000E+00 2.00000E+00
 -1       265-6.66134E-16-1.00000E+00 3.00000E+00
 -1       266-6.66134E-16-1.00000E+00 4.00000E+00
 -1       267 0.00000E+00-1.00000E+00 5.00000E+00
 -1       268 0.00000E+00-1.00000E+00 6.00000E+00
 -1       269 0.00000E+00-1.00000E+00 7.00000E+00
 -1       270 0.00000E+00-1.00000E+00 8.00000E+00
 -1       271 0.00000E+00-1.00000E+00 9.00000E+00
 -1       272 0.00000E+00-1.00000E+00 1.00000E+01
 -1       273 0.00000E+00-1.00000E+00 1.10000E+01
 -1       274 0.00000E+00-1.00000E+00 1.20000E+01
 -1       275 0.00000E+00-1.00000E+00 1.30000E+01
 -1       276 0.00000E+00-1.00000E+00 1.40000E+01
 -1       277 0.00000E+00-1.00000E+00 1.50000E+01
 -1       278 0.00000E+00-1.00000E+00 1.60000E+01
 -1       279 0.00000E+00-1.00000E+00 1.70000E+01
 -1       280 0.00000E+00-1.00000E+00 1.80000E+01
 -1       281 0.00000E+00-1.00000E+00 1.90000E+01
 -1       282 0.00000E+00-1.00000E+00 2.00000E+01
 -1       283 0.00000E+00-1.00000E+00 2.10000E+01
 -1       284 0.00000E+00-1.00000E+00 2.20000E+01
 -1       285 0.00000E+00-1.00000E+00 2.30000E+01
 -1       286 0.00000E+00-1.00000E+00 2.40000E+01
 -1       287 0.00000E+00-1.00000E+00 2.50000E+01
 -1       288 0.00000E+00-1.00000E+00 2.60000E+01
 -1       289 0.00000E+00-1.00000E+00 2.70000E+01
 -1       290 0.00000E+00-1.00000E+00 2.80000E+01
 -1       291 0.00000E+00-1.00000E+00 2.90000E+01
 -1       292 0.00000E+00-1.00000E+00 3.00000E+01
 -1       293 0.00000E+00-1.00000E+00 3.10000E+01
 -1       294 0.00000E+00-1.00000E+00 3.20000E+01
 -1       295 0.00000E+00-1.00000E+00 3.30000E+01
 -1       296 0.00000E+00-1.00000E+00 3.40000E+01
 -1       297 0.00000E+00-1.00000E+00 3.50000E+01
 -1       298 0.00000E+00-1.00000E+00 3.60000E+01
 -1       299 0.00000E+00-1.00000E+00 3.70000E+01
 -1       300 0.00000E+00-1.00000E+00 3.80000E+01
 -1       301 0.00000E+00-1.00000E+00 3.90000E+01
 -1       302 0.00000E+00-1.00000E+00 4.00000E+01
 -1       303 0.00000E+00-1.00000E+00 4.10000E+01
 -1       304 0.00000E+00-1.00000E+00 4.20000E+01
 -1       305 0.00000E+00-1.00000E+00 4.30000E+01
 -1       306 0.00000E+00-1.00000E+00 4.40000E+01
 -1       307 0.00000E+00-1.00000E+00 4.50000E+01
 -1       308 0.00000E+00-1.00000E+00 4.60000E+01
 -1       309 0.00000E+00-1.00000E+00 4.70000E+01
 -1       310-4.44089E-16-1.00000E+00 4.80000E+01
 -1       311-5.03930E-13-1.00000E+00 4.90000E+01
 -1       312 1.00000E+00-6.22724E-13 1.00000E+00
 -1       313 1.00000E+00-1.33227E-15 2.00000E+00
 -1       314 1.00000E+00-6.66134E-16 3.00000E+00
 -1       315 1.00000E+00-6.66134E-16 4.00000E+00
 -1       316 1.00000E+00 0.00000E+00 5.00000E+00
 -1       317 1.00000E+00 0.00000E+00 6.00000E+00
 -1       318 1.00000E+00 0.00000E+00 7.00000E+00
 -1       319 1.00000E+00 0.00000E+00 8.00000E+00
 -1       320 1.00000E+00 0.00000E+00 9.00000E+00
 -1       321 1.00000E+00 0.00000E+00 1.00000E+01
 -1       322 1.00000E+00 0.00000E+00 1.10000E+01
 -1       323 1.00000E+00 0.00000E+00 1.20000E+01
 -1       324 1.00000E+00 0.00000E+00 1.30000E+01
 -1       325 1.00000E+00 0.00000E+00 1.40000E+01
 -1       326 1.00000E+00 0.00000E+00 1.50000E+01
 -1       327 1.00000E+00 0.00000E+00 1.60000E+01
 -1       328 1.00000E+00 0.00000E+00 1.70000E+01
 -1       329 1.00000E+00 0.00000E+00 1.80000E+01
 -1       330 1.00000E+00 0.00000E+00 1.90000E+01
 -1       331 1.00000E+00 0.00000E+00 2.00000E+01
 -1       332 1.00000E+00 0.00000E+00 2.10000E+01
 -1       333 1.00000E+00 0.00000E+00 2.20000E+01
 -1       334 1.00000E+00 0.00000E+00 2.30000E+01
 -1       335 1.00000E+00 0.00000E+00 2.40000E+01
 -1       336 1.00000E+00 0.00000E+00 2.50000E+01
 -1       337 1.00000E+00 0.00000E+00 2.60000E+01
 -1       338 1.00000E+00 0.00000E+00 2.70000E+01
 -1       339 1.00000E+00 0.00000E+00 2.80000E+01
 -1       340 1.00000E+00 0.00000E+00 2.90000E+01
 -1       341 1.00000E+00 0.00000E+00 3.00000E+01
 -1       342 1.00000E+00 0.00000E+00 3.10000E+01
 -1       343 1.00000E+00 0.00000E+00 3.20000E+01
 -1       344 1.00000E+00 0.00000E+00 3.30000E+01
 -1       345 1.00000E+00 0.00000E+00 3.40000E+01
 -1       346 1.00000E+00 0.00000E+00 3.50000E+01
 -1       347 1.00000E+00 0.00000E+00 3.60000E+01
 -1       348 1.00000E+00 0.00000E+00 3.70000E+01
 -1       349 1.00000E+00 0.00000E+00 3.80000E+01
 -1       350 1.00000E+00 0.00000E+00 3.90000E+01
 -1       351 1.00000E+00 0.00000E+00 4.00000E+01
 -1       352 1.00000E+00 0.00000E+00 4.10000E+01
 -1       353 1.00000E+00 0.00000E+00 4.20000E+01
 -1       354 1.00000E+00 0.00000E+00 4.30000E+01
 -1       355 1.00000E+00 0.00000E+00 4.40000E+01
 -1       356 1.00000E+00 0.00000E+00 4.50000E+01
 -1       357 1.00000E+00 0.00000E+00 4.60000E+01
 -1       358 1.00000E+00 0.00000E+00 4.70000E+01
 -1       359 1.00000E+00-4.44089E-16 4.80000E+01
 -1       360 1.00000E+00-5.03930E-13 4.90000E+01
 -1       361-6.23279E-13 1.00000E+00 1.00000E+00
 -1       362-1.11022E-15 1.00000E+00 2.00000E+00
 -1       363-6.66134E-16 1.00000E+00 3.00000E+00
 -1       364-6.66134E-16 1.00000E+00 4.00000E+00
 -1       365 0.00000E+00 1.00000E+00 5.00000E+00
 -1       366 0.00000E+00 1.00000E+00 6.00000E+00
 -1       367 0.00000E+00 1.00000E+00 7.00000E+00
 -1       368 0.00000E+00 1.00000E+00 8.00000E+00
 -1       369 0.00000E+00 1.00000E+00 9.00000E+00
 -1       370 0.00000E+00 1.00000E+00 1.00000E+01
 -1       371 0.00000E+00 1.00000E+00 1.10000E+01
 -1       372 0.00000E+00 1.00000E+00 1.20000E+01
 -1       373 0.00000E+00 1.00000E+00 1.30000E+01
 -1       374 0.00000E+00 1.00000E+00 1.40000E+01
 -1       375 0.00000E+00 1.00000E+00 1.50000E+01
 -1       376 0.00000E+00 1.00000E+00 1.60000E+01
 -1       377 0.00000E+00 1.00000E+00 1.70000E+01
 -1       378 0.00000E+00 1.00000E+00 1.80000E+01
 -1       379 0.00000E+00 1.00000E+00 1.90000E+01
 -1       380 0.00000E+00 1.00000E+00 2.00000E+01
 -1       381 0.00000E+00 1.00000E+00 2.10000E+01
 -1       382 0.00000E+00 1.00000E+00 2.20000E+01
 -1       383 0.00000E+00 1.00000E+00 2.30000E+01
 -1       384 0.00000E+00 1.00000E+00 2.40000E+01
 -1       385 0.00000E+00 1.00000E+00 2.50000E+01
 -1       386 0.00000E+00 1.00000E+00 2.60000E+01
 -1       387 0.00000E+00 1.00000E+00 2.70000E+01
 -1       388 0.00000E+00 1.00000E+00 2.80000E+01
 -1       389 0.00000E+00 1.00000E+00 2.90000E+01
 -1       390 0.00000E+00 1.00000E+00 3.00000E+01
 -1       391 0.00000E+00 1.00000E+00 3.10000E+01
 -1       392 0.00000E+00 1.00000E+00 3.20000E+01
 -1       393 0.00000E+00 1.00000E+00 3.30000E+01
 -1       394 0.00000E+00 1.00000E+00 3.40000E+01
 -1       395 0.00000E+00 1.00000E+00 3.50000E+01
 -1       396 0.00000E+00 1.00000E+00 3.60000E+01
 -1       397 0.00000E+00 1.00000E+00 3.70000E+01
 -1       398 0.00000E+00 1.00000E+00 3.80000E+01
 -1       399 0.00000E+00 1.00000E+00 3.90000E+01
 -1       400 0.00000E+00 1.00000E+00 4.00000E+01
 -1       401 0.00000E+00 1.00000E+00 4.10000E+01
 -1       402 0.00000E+00 1.00000E+00 4.20000E+01
 -1       403 0.00000E+00 1.00000E+00 4.30000E+01
 -1       404 0.00000E+00 1.00000E+00 4.40000E+01
 -1       405 0.00000E+00 1.00000E+00 4.50000E+01
 -1       406 0.00000E+00 1.00000E+00 4.60000E+01
 -1       407 0.00000E+00 1.00000E+00 4.70000E+01
 -1       408-4.44089E-16 1.00000E+00 4.80000E+01
 -1       409-5.07372E-13 1.00000E+00 4.90000E+01
 -1       410-9.24621E-13 0.00000E+00 5.00000E+01
 -1       411-9.25010E-13 0.00000E+00 1.00000E+00
 -1       412-9.25010E-13 0.00000E+00 2.00000E+00
 -1       413-9.25010E-13 0.00000E+00 3.00000E+00
 -1       414-9.25010E-13 0.00000E+00 4.00000E+00
 -1       415-9.25010E-13 0.00000E+00 5.00000E+00
 -1       416-9.25010E-13 0.00000E+00 6.00000E+00
 -1       417-9.25010E-13 0.00000E+00 7.00000E+00
 -1       418-9.25010E-13 0.00000E+00 8.00000E+00
 -1       419-9.25010E-13 0.00000E+00 9.00000E+00
 -1       420-9.25010E-13 0.00000E+00 1.00000E+01
 -1       421-9.25010E-13 0.00000E+00 1.10000E+01
 -1       422-9.25010E-13 0.00000E+00 1.20000E+01
 -1       423-9.25010E-13 0.00000E+00 1.30000E+01
 -1       424-9.25010E-13 0.00000E+00 1.40000E+01
 -1       425-9.25010E-13 0.00000E+00 1.50000E+01
 -1       426-9.25010E-13 0.00000E+00 1.60000E+01
 -1       427-9.25010E-13 0.00000E+00 1.70000E+01
 -1       428-9.25010E-13 0.00000E+00 1.80000E+01
 -1       429-9.25010E-13 0.00000E+00 1.90000E+01
 -1       430-9.25010E-13 0.00000E+00 2.00000E+01
 -1       431-9.25010E-13 0.00000E+00 2.10000E+01
 -1       432-9.25010E-13 0.00000E+00 2.20000E+01
 -1       433-9.25010E-13 0.00000E+00 2.30000E+01
 -1       434-9.25010E-13 0.00000E+00 2.40000E+01
 -1       435-9.25010E-13 0.00000E+00 2.50000E+01
 -1       436-9.25010E-13 0.00000E+00 2.60000E+01
 -1       437-9.25010E-13 0.00000E+00 2.70000E+01
 -1       438-9.25010E-13 0.00000E+00 2.80000E+01
 -1       439-9.25010E-13 0.00000E+00 2.90000E+01
 -1       440-9.25010E-13 0.00000E+00 3.00000E+01
 -1       441-9.25010E-13 0.00000E+00 3.10000E+01
 -1       442-9.25010E-13 0.00000E+00 3.20000E+01
 -1       443-9.25010E-13 0.00000E+00 3.30000E+01
 -1       444-9.25010E-13 0.00000E+00 3.40000E+01
 -1       445-9.25010E-13 0.00000E+00 3.50000E+01
 -1       446-9.25010E-13 0.00000E+00 3.60000E+01
 -1       447-9.25010E-13 0.00000E+00 3.70000E+01
 -1       448-9.25010E-13 0.00000E+00 3.80000E+01
 -1       449-9.25010E-13 0.00000E+00 3.90000E+01
 -1       450-9.25010E-13 0.00000E+00 4.00000E+01
 -1       451-9.25010E-13 0.00000E+00 4.10000E+01
 -1       452-9.25010E-13 0.00000E+00 4.20000E+01
 -1       453-9.25010E-13 0.00000E+00 4.30000E+01
 -1       454-9.25010E-13 0.00000E+00 4.40000E+01
 -1       455-9.25010E-13 0.00000E+00 4.50000E+01
 -1       456-9.25010E-13 0.00000E+00 4.60000E+01
 -1       457-9.25010E-13 0.00000E+00 4.70000E+01
 -1       458-9.25010E-13 0.00000E+00 4.80000E+01
 -1       459-9.25010E-13 0.00000E+00 4.90000E+01
 -3
    3C                           200                                     1
 -1      1351    1    0    1
 -2        10         2         9       213       361        17       214       411
 -1      1352    1    0    1
 -2       361        17       214       411       362        18       215       412
 -1      1353    1    0    1
 -2       362        18       215       412       363        19       216       413
 -1      1354    1    0    1
 -2       363        19       216       413       364        20       217       414
 -1      1355    1    0    1
 -2       364        20       217       414       365        21       218       415
 -1      1356    1    0    1
 -2       365        21       218       415       366        22       219       416
 -1      1357    1    0    1
 -2       366        22       219       416       367        23       220       417
 -1      1358    1    0    1
 -2       367        23       220       417       368        24       221       418
 -1      1359    1    0    1
 -2       368        24       221       418       369        25       222       419
 -1      1360    1    0    1
 -2       369        25       222       419       370        26       223       420
 -1      1361    1    0    1
 -2       370        26       223       420       371        27       224       421
 -1      1362    1    0    1
 -2       371        27       224       421       372        28       225       422
 -1      1363    1    0    1
 -2       372        28       225       422       373        29       226       423
 -1      1364    1    0    1
 -2       373        29       226       423       374        30       227       424
 -1      1365    1    0    1
 -2       374        30       227       424       375        31       228       425
 -1      1366    1    0    1
 -2       375        31       228       425       376        32       229       426
 -1      1367    1    0    1
 -2       376        32       229       426       377        33       230       427
 -1      1368    1    0    1
 -2       377        33       230       427       378        34       231       428
 -1      1369    1    0    1
 -2       378        34       231       428       379        35       232       429
 -1      1370    1    0    1
 -2       379        35       232       429       380        36       233       430
 -1      1371    1    0    1
 -2       380        36       233       430       381        37       234       431
 -1      1372    1    0    1
 -2       381        37       234       431       382        38       235       432
 -1      1373    1    0    1
 -2       382        38       235       432       383        39       236       433
 -1      1374    1    0    1
 -2       383        39       236       433       384        40       237       434
 -1      1375    1    0    1
 -2       384        40       237       434       385        41       238       435
 -1      1376    1    0    1
 -2       385        41       238       435       386        42       239       436
 -1      1377    1    0    1
 -2       386        42       239       436       387        43       240       437
 -1      1378    1    0    1
 -2       387        43       240       437       388        44       241       438
 -1      1379    1    0    1
 -2       388        44       241       438       389        45       242       439
 -1      1380    1    0    1
 -2       389        45       242       439       390        46       243       440
 -1      1381    1    0    1
 -2       390        46       243       440       391        47       244       441
 -1      1382    1    0    1
 -2       391        47       244       441       392        48       245       442
 -1      1383    1    0    1
 -2       392        48       245       442       393        49       246       443
 -1      1384    1    0    1
 -2       393        49       246       443       394        50       247       444
 -1      1385    1    0    1
 -2       394        50       247       444       395        51       248       445
 -1      1386    1    0    1
 -2       395        51       248       445       396        52       249       446
 -1      1387    1    0    1
 -2       396        52       249       446       397        53       250       447
 -1      1388    1    0    1
 -2       397        53       250       447       398        54       251       448
 -1      1389    1    0    1
 -2       398        54       251       448       399        55       252       449
 -1      1390    1    0    1
 -2       399        55       252       449       400        56       253       450
 -1      1391    1    0    1
 -2       400        56       253       450       401        57       254       451
 -1      1392    1    0    1
 -2       401        57       254       451       402        58       255       452
 -1      1393    1    0    1
 -2       402        58       255       452       403        59       256       453
 -1      1394    1    0    1
 -2       403        59       256       453       404        60       257       454
 -1      1395    1    0    1
 -2       404        60       257       454       405        61       258       455
 -1      1396    1    0    1
 -2       405        61       258       455       406        62       259       456
 -1      1397    1    0    1
 -2       406        62       259       456       407        63       260       457
 -1      1398    1    0    1
 -2       407        63       260       457       408        64       261       458
 -1      1399    1    0    1
 -2       408        64       261       458       409        65       262       459
 -1      1400    1    0    1
 -2       409        65       262       459        16         5        13       410
 -1      1401    1    0    1
 -2         1        11       213         9        66       263       411       214
 -1      1402    1    0    1
 -2        66       263       411       214        67       264       412       215
 -1      1403    1    0    1
 -2        67       264       412       215        68       265       413       216
 -1      1404    1    0    1
 -2        68       265       413       216        69       266       414       217
 -1      1405    1    0    1