    1C
    1UUSER                                                              
    1UDATE              18.july.2018                                    
    1UTIME              15:49:32                                        
    1UHOST                                                              
    1UPGM               CalculiX                                        
    1UVERSION           Version DEVELOPMENT                             
    1UCOMPILETIME       So 13. Mai 12:06:53 CEST 2018                    
    1UDIR                                                               
    1UDBN                                                               
    1UMAT    1STEEL                                                     
    2C                            20                                     1
 -1         4 0.00000E+00-5.00000E+00 2.50000E+00
 -1         5 0.00000E+00-5.00000E+00-2.50000E+00
 -1         6 0.00000E+00 5.00000E+00-2.50000E+00
 -1         7 0.00000E+00 5.00000E+00 2.50000E+00
 -1         8 0.00000E+00-5.00000E+00 0.00000E+00
 -1         9 0.00000E+00 0.00000E+00-2.50000E+00
 -1        10 0.00000E+00 5.00000E+00 0.00000E+00
 -1        11 0.00000E+00 0.00000E+00 2.50000E+00
 -1        12 1.00000E+02-5.00000E+00 2.50000E+00
 -1        13 1.00000E+02-5.00000E+00-2.50000E+00
 -1        14 1.00000E+02 5.00000E+00-2.50000E+00
 -1        15 1.00000E+02 5.00000E+00 2.50000E+00
 -1        16 1.00000E+02-5.00000E+00 0.00000E+00
 -1        17 1.00000E+02 0.00000E+00-2.50000E+00
 -1        18 1.00000E+02 5.00000E+00 0.00000E+00
 -1        19 1.00000E+02 0.00000E+00 2.50000E+00
 -1        20 5.00000E+01-5.00000E+00 2.50000E+00
 -1        21 5.00000E+01-5.00000E+00-2.50000E+00
 -1        22 5.00000E+01 5.00000E+00-2.50000E+00
 -1        23 5.00000E+01 5.00000E+00 2.50000E+00
 -3
    3C                             1                                     1
 -1         3    4    0    1
 -2         4        12        13         5         7        15        14         6        20        16
 -2        21         8        11        19        17         9        23        18        22        10
 -3
    1PSTEP                         1           1           1          
  100CL  101 1.000000000          20                     0    1           1
 -4  DISP        4    1
 -5  D1          1    2    1    0
 -5  D2          1    2    2    0
 -5  D3          1    2    3    0
 -5  ALL         1    2    0    0    1ALL
 -1         4 1.47251E-14-8.34403E-14-1.47142E-05
 -1         5-1.47251E-14 8.58875E-14 1.47142E-05
 -1         6 1.47251E-14 8.18620E-14-1.47142E-05
 -1         7-1.47251E-14-8.43092E-14 1.47142E-05
 -1         8 0.00000E+00 1.22359E-15 4.19374E-14
 -1         9 0.00000E+00 8.38747E-14 4.19174E-16
 -1        10 0.00000E+00-1.22359E-15-4.19374E-14
 -1        11 0.00000E+00-8.38747E-14-4.19174E-16
 -1        12 9.84789E-04 1.28908E-02 4.51335E-06
 -1        13 9.84789E-04 1.28908E-02-4.51335E-06
 -1        14-9.84789E-04 1.28908E-02 4.51335E-06
 -1        15-9.84789E-04 1.28908E-02-4.51335E-06
 -1        16 9.85248E-04 1.28926E-02 5.31489E-13
 -1        17 1.72614E-14 1.28832E-02 4.93253E-13
 -1        18-9.85248E-04 1.28926E-02 4.53653E-13
 -1        19-1.71422E-14 1.28832E-02 4.92423E-13
 -1        20 7.13418E-04 3.98266E-03-9.68763E-06
 -1        21 7.13418E-04 3.98266E-03 9.68763E-06
 -1        22-7.13418E-04 3.98266E-03-9.68763E-06
 -1        23-7.13418E-04 3.98266E-03 9.68763E-06
 -3
 9999
