    1C
    1UUSER                                                              
    1UDATE              28.july.2018                                    
    1UTIME              11:43:46                                        
    1UHOST                                                              
    1UPGM               CalculiX                                        
    1UVERSION           Version DEVELOPMENT                             
    1UCOMPILETIME       So 13. Mai 12:06:53 CEST 2018                    
    1UDIR                                                               
    1UDBN                                                               
    1UMAT    1SPRING                                                    
    2C                             0                                     1
 -3
    3C                             0                                     1
 -3
    1PSTEP                         1           1           1          
  100CL  101 1.000000000           0                     0    1           1
 -4  DISP        4    1
 -5  D1          1    2    1    0
 -5  D2          1    2    2    0
 -5  D3          1    2    3    0
 -5  ALL         1    2    0    0    1ALL
 -3
 9999
