    1C
    1UUSER                                                              
    1UDATE              18.july.2018                                    
    1UTIME              15:18:27                                        
    1UHOST                                                              
    1UPGM               CalculiX                                        
    1UVERSION           Version DEVELOPMENT                             
    1UCOMPILETIME       So 13. Mai 12:06:53 CEST 2018                    
    1UDIR                                                               
    1UDBN                                                               
    1UMAT    1STEEL                                                     
    2C                             8                                     1
 -1         3 0.00000E+00-5.00000E+00 2.50000E+00
 -1         4 0.00000E+00-5.00000E+00-2.50000E+00
 -1         5 0.00000E+00 5.00000E+00-2.50000E+00
 -1         6 0.00000E+00 5.00000E+00 2.50000E+00
 -1        11 1.00000E+02-5.00000E+00 2.50000E+00
 -1        12 1.00000E+02-5.00000E+00-2.50000E+00
 -1        13 1.00000E+02 5.00000E+00-2.50000E+00
 -1        14 1.00000E+02 5.00000E+00 2.50000E+00
 -3
    3C                             1                                     1
 -1         3    1    0    1
 -2         3        11        12         4         6        14        13         5
 -3
    1PSTEP                         1           1           1          
  100CL  101 1.000000000           8                     0    1           1
 -4  DISP        4    1
 -5  D1          1    2    1    0
 -5  D2          1    2    2    0
 -5  D3          1    2    3    0
 -5  ALL         1    2    0    0    1ALL
 -1         3-4.41193E-20-6.12145E-18-8.70504E-19
 -1         4 4.41193E-20-2.06030E-18 1.62124E-18
 -1         5-4.41193E-20 3.56177E-18 8.11106E-19
 -1         6 4.41193E-20 4.61998E-18-1.56184E-18
 -1        11 1.72070E-04 1.80966E-03-2.82932E-15
 -1        12 1.72070E-04 1.80966E-03-2.82858E-15
 -1        13-1.72070E-04 1.80966E-03-2.81096E-15
 -1        14-1.72070E-04 1.80966E-03-2.80565E-15
 -3
 9999
