    1C
    1UUSER                                                              
    1UDATE              09.july.2018                                    
    1UTIME              18:23:59                                        
    1UHOST                                                              
    1UPGM               CalculiX                                        
    1UVERSION           Version 2.11                             
    1UCOMPILETIME       So 31. Jul 13:26:31 CEST 2016                    
    1UDIR                                                               
    1UDBN                                                               
    1UMAT    1SPRING                                                    
    1UMAT    2SPRING                                                    
    1UMAT    3SPRING                                                    
    2C                             4                                     1
 -1         1 0.00000E+00 0.00000E+00 0.00000E+00
 -1         2 1.00000E+00 0.00000E+00 0.00000E+00
 -1         3 2.00000E+00 0.00000E+00 0.00000E+00
 -1         4 3.00000E+00 0.00000E+00 0.00000E+00
 -3
    3C                             3                                     1
 -1         5   11    0    1
 -2         1         2
 -1         6   11    0    2
 -2         2         3
 -1         7   11    0    3
 -2         3         4
 -3
    1PSTEP                         1           1           1          
  100CL  101 1.000000000           4                     0    1           1
 -4  DISP        4    1
 -5  D1          1    2    1    0
 -5  D2          1    2    2    0
 -5  D3          1    2    3    0
 -5  ALL         1    2    0    0    1ALL
 -1         1 0.00000E+00 0.00000E+00 0.00000E+00
 -1         2 9.09091E-01 0.00000E+00 0.00000E+00
 -1         3 1.36364E+00 0.00000E+00 0.00000E+00
 -1         4 0.00000E+00 0.00000E+00 0.00000E+00
 -3
 9999
