    1C
    1UUSER                                                              
    1UDATE              18.july.2018                                    
    1UTIME              15:43:47                                        
    1UHOST                                                              
    1UPGM               CalculiX                                        
    1UVERSION           Version DEVELOPMENT                             
    1UCOMPILETIME       So 13. Mai 12:06:53 CEST 2018                    
    1UDIR                                                               
    1UDBN                                                               
    1UMAT    1STEEL                                                     
    2C                            20                                     1
 -1         4 0.00000E+00-5.00000E+00 2.50000E+00
 -1         5 0.00000E+00-5.00000E+00-2.50000E+00
 -1         6 0.00000E+00 5.00000E+00-2.50000E+00
 -1         7 0.00000E+00 5.00000E+00 2.50000E+00
 -1         8 0.00000E+00-5.00000E+00 0.00000E+00
 -1         9 0.00000E+00 0.00000E+00-2.50000E+00
 -1        10 0.00000E+00 5.00000E+00 0.00000E+00
 -1        11 0.00000E+00 0.00000E+00 2.50000E+00
 -1        12 1.00000E+02-5.00000E+00 2.50000E+00
 -1        13 1.00000E+02-5.00000E+00-2.50000E+00
 -1        14 1.00000E+02 5.00000E+00-2.50000E+00
 -1        15 1.00000E+02 5.00000E+00 2.50000E+00
 -1        16 1.00000E+02-5.00000E+00 0.00000E+00
 -1        17 1.00000E+02 0.00000E+00-2.50000E+00
 -1        18 1.00000E+02 5.00000E+00 0.00000E+00
 -1        19 1.00000E+02 0.00000E+00 2.50000E+00
 -1        20 5.00000E+01-5.00000E+00 2.50000E+00
 -1        21 5.00000E+01-5.00000E+00-2.50000E+00
 -1        22 5.00000E+01 5.00000E+00-2.50000E+00
 -1        23 5.00000E+01 5.00000E+00 2.50000E+00
 -3
    3C                             1                                     1
 -1         3    4    0    1
 -2         4        12        13         5         7        15        14         6        20        16
 -2        21         8        11        19        17         9        23        18        22        10
 -3
    1PSTEP                         1           1           1          
  100CL  101 1.000000000          20                     0    1           1
 -4  DISP        4    1
 -5  D1          1    2    1    0
 -5  D2          1    2    2    0
 -5  D3          1    2    3    0
 -5  ALL         1    2    0    0    1ALL
 -1         4 2.25379E-17 7.50486E-17-1.05820E-05
 -1         5-2.25379E-17-5.80726E-17 1.05820E-05
 -1         6 2.25379E-17 5.81262E-17-1.05820E-05
 -1         7-2.25379E-17-7.51022E-17 1.05820E-05
 -1         8 0.00000E+00 8.48801E-18 1.33961E-20
 -1         9 0.00000E+00 2.67921E-20-1.70592E-18
 -1        10 0.00000E+00-8.48801E-18-1.33961E-20
 -1        11 0.00000E+00-2.67921E-20 1.70592E-18
 -1        12 1.00522E-03 1.05071E-02-5.16959E-06
 -1        13 1.00522E-03 1.05071E-02 5.16959E-06
 -1        14-1.00522E-03 1.05071E-02-5.16959E-06
 -1        15-1.00522E-03 1.05071E-02 5.16959E-06
 -1        16 1.00532E-03 1.05096E-02-1.33581E-13
 -1        17-6.40567E-15 1.04964E-02-1.32289E-13
 -1        18-1.00532E-03 1.05096E-02-1.30653E-13
 -1        19 6.62386E-15 1.04964E-02-1.32285E-13
 -1        20 5.29594E-04 2.74032E-03-7.87941E-06
 -1        21 5.29594E-04 2.74032E-03 7.87941E-06
 -1        22-5.29594E-04 2.74032E-03-7.87941E-06
 -1        23-5.29594E-04 2.74032E-03 7.87941E-06
 -3
 9999
